# vtk DataFile Version 3.0
Cohesive Element Mesh
ASCII
DATASET UNSTRUCTURED_GRID
POINTS 2662 double
-250 150 0
-250 135 0
-250 120 0
-250 105 0
-250 90 0
-250 75 0
-250 60 0
-250 45 0
-250 30 0
-250 15 0
-250 0 0
-225 150 0
-225 135 0
-225 120 0
-225 105 0
-225 90 0
-225 75 0
-225 60 0
-225 45 0
-225 30 0
-225 15 0
-225 0 0
-200 150 0
-200 135 0
-200 120 0
-200 105 0
-200 90 0
-200 75 0
-200 60 0
-200 45 0
-200 30 0
-200 15 0
-200 0 0
-175 150 0
-175 135 0
-175 120 0
-175 105 0
-175 90 0
-175 75 0
-175 60 0
-175 45 0
-175 30 0
-175 15 0
-175 0 0
-150 150 0
-150 135 0
-150 120 0
-150 105 0
-150 90 0
-150 75 0
-150 60 0
-150 45 0
-150 30 0
-150 15 0
-150 0 0
-125 150 0
-125 135 0
-125 120 0
-125 105 0
-125 90 0
-125 75 0
-125 60 0
-125 45 0
-125 30 0
-125 15 0
-125 0 0
-100 150 0
-100 135 0
-100 120 0
-100 105 0
-100 90 0
-100 75 0
-100 60 0
-100 45 0
-100 30 0
-100 15 0
-100 0 0
-75 150 0
-75 135 0
-75 120 0
-75 105 0
-75 90 0
-75 75 0
-75 60 0
-75 45 0
-75 30 0
-75 15 0
-75 0 0
-50 150 0
-50 135 0
-50 120 0
-50 105 0
-50 90 0
-50 75 0
-50 60 0
-50 45 0
-50 30 0
-50 15 0
-50 0 0
-25 150 0
-25 135 0
-25 120 0
-25 105 0
-25 90 0
-25 75 0
-25 60 0
-25 45 0
-25 30 0
-25 15 0
-25 0 0
0 150 0
0 135 0
0 120 0
0 105 0
0 90 0
0 75 0
0 60 0
0 45 0
0 30 0
0 15 0
0 0 0
25 150 0
25 135 0
25 120 0
25 105 0
25 90 0
25 75 0
25 60 0
25 45 0
25 30 0
25 15 0
25 0 0
50 150 0
50 135 0
50 120 0
50 105 0
50 90 0
50 75 0
50 60 0
50 45 0
50 30 0
50 15 0
50 0 0
75 150 0
75 135 0
75 120 0
75 105 0
75 90 0
75 75 0
75 60 0
75 45 0
75 30 0
75 15 0
75 0 0
100 150 0
100 135 0
100 120 0
100 105 0
100 90 0
100 75 0
100 60 0
100 45 0
100 30 0
100 15 0
100 0 0
125 150 0
125 135 0
125 120 0
125 105 0
125 90 0
125 75 0
125 60 0
125 45 0
125 30 0
125 15 0
125 0 0
150 150 0
150 135 0
150 120 0
150 105 0
150 90 0
150 75 0
150 60 0
150 45 0
150 30 0
150 15 0
150 0 0
175 150 0
175 135 0
175 120 0
175 105 0
175 90 0
175 75 0
175 60 0
175 45 0
175 30 0
175 15 0
175 0 0
200 150 0
200 135 0
200 120 0
200 105 0
200 90 0
200 75 0
200 60 0
200 45 0
200 30 0
200 15 0
200 0 0
225 150 0
225 135 0
225 120 0
225 105 0
225 90 0
225 75 0
225 60 0
225 45 0
225 30 0
225 15 0
225 0 0
250 150 0
250 135 0
250 120 0
250 105 0
250 90 0
250 75 0
250 60 0
250 45 0
250 30 0
250 15 0
250 0 0
0 150 0
0 135 0
0 120 0
0 105 0
0 90 0
0 75 0
0 60 0
0 45 0
0 30 0
0 15 0
0 0 0
-250 150 15
-250 135 15
-250 120 15
-250 105 15
-250 90 15
-250 75 15
-250 60 15
-250 45 15
-250 30 15
-250 15 15
-250 0 15
-225 150 15
-225 135 15
-225 120 15
-225 105 15
-225 90 15
-225 75 15
-225 60 15
-225 45 15
-225 30 15
-225 15 15
-225 0 15
-200 150 15
-200 135 15
-200 120 15
-200 105 15
-200 90 15
-200 75 15
-200 60 15
-200 45 15
-200 30 15
-200 15 15
-200 0 15
-175 150 15
-175 135 15
-175 120 15
-175 105 15
-175 90 15
-175 75 15
-175 60 15
-175 45 15
-175 30 15
-175 15 15
-175 0 15
-150 150 15
-150 135 15
-150 120 15
-150 105 15
-150 90 15
-150 75 15
-150 60 15
-150 45 15
-150 30 15
-150 15 15
-150 0 15
-125 150 15
-125 135 15
-125 120 15
-125 105 15
-125 90 15
-125 75 15
-125 60 15
-125 45 15
-125 30 15
-125 15 15
-125 0 15
-100 150 15
-100 135 15
-100 120 15
-100 105 15
-100 90 15
-100 75 15
-100 60 15
-100 45 15
-100 30 15
-100 15 15
-100 0 15
-75 150 15
-75 135 15
-75 120 15
-75 105 15
-75 90 15
-75 75 15
-75 60 15
-75 45 15
-75 30 15
-75 15 15
-75 0 15
-50 150 15
-50 135 15
-50 120 15
-50 105 15
-50 90 15
-50 75 15
-50 60 15
-50 45 15
-50 30 15
-50 15 15
-50 0 15
-25 150 15
-25 135 15
-25 120 15
-25 105 15
-25 90 15
-25 75 15
-25 60 15
-25 45 15
-25 30 15
-25 15 15
-25 0 15
0 150 15
0 135 15
0 120 15
0 105 15
0 90 15
0 75 15
0 60 15
0 45 15
0 30 15
0 15 15
0 0 15
25 150 15
25 135 15
25 120 15
25 105 15
25 90 15
25 75 15
25 60 15
25 45 15
25 30 15
25 15 15
25 0 15
50 150 15
50 135 15
50 120 15
50 105 15
50 90 15
50 75 15
50 60 15
50 45 15
50 30 15
50 15 15
50 0 15
75 150 15
75 135 15
75 120 15
75 105 15
75 90 15
75 75 15
75 60 15
75 45 15
75 30 15
75 15 15
75 0 15
100 150 15
100 135 15
100 120 15
100 105 15
100 90 15
100 75 15
100 60 15
100 45 15
100 30 15
100 15 15
100 0 15
125 150 15
125 135 15
125 120 15
125 105 15
125 90 15
125 75 15
125 60 15
125 45 15
125 30 15
125 15 15
125 0 15
150 150 15
150 135 15
150 120 15
150 105 15
150 90 15
150 75 15
150 60 15
150 45 15
150 30 15
150 15 15
150 0 15
175 150 15
175 135 15
175 120 15
175 105 15
175 90 15
175 75 15
175 60 15
175 45 15
175 30 15
175 15 15
175 0 15
200 150 15
200 135 15
200 120 15
200 105 15
200 90 15
200 75 15
200 60 15
200 45 15
200 30 15
200 15 15
200 0 15
225 150 15
225 135 15
225 120 15
225 105 15
225 90 15
225 75 15
225 60 15
225 45 15
225 30 15
225 15 15
225 0 15
250 150 15
250 135 15
250 120 15
250 105 15
250 90 15
250 75 15
250 60 15
250 45 15
250 30 15
250 15 15
250 0 15
0 150 15
0 135 15
0 120 15
0 105 15
0 90 15
0 75 15
0 60 15
0 45 15
0 30 15
0 15 15
0 0 15
-250 150 30
-250 135 30
-250 120 30
-250 105 30
-250 90 30
-250 75 30
-250 60 30
-250 45 30
-250 30 30
-250 15 30
-250 0 30
-225 150 30
-225 135 30
-225 120 30
-225 105 30
-225 90 30
-225 75 30
-225 60 30
-225 45 30
-225 30 30
-225 15 30
-225 0 30
-200 150 30
-200 135 30
-200 120 30
-200 105 30
-200 90 30
-200 75 30
-200 60 30
-200 45 30
-200 30 30
-200 15 30
-200 0 30
-175 150 30
-175 135 30
-175 120 30
-175 105 30
-175 90 30
-175 75 30
-175 60 30
-175 45 30
-175 30 30
-175 15 30
-175 0 30
-150 150 30
-150 135 30
-150 120 30
-150 105 30
-150 90 30
-150 75 30
-150 60 30
-150 45 30
-150 30 30
-150 15 30
-150 0 30
-125 150 30
-125 135 30
-125 120 30
-125 105 30
-125 90 30
-125 75 30
-125 60 30
-125 45 30
-125 30 30
-125 15 30
-125 0 30
-100 150 30
-100 135 30
-100 120 30
-100 105 30
-100 90 30
-100 75 30
-100 60 30
-100 45 30
-100 30 30
-100 15 30
-100 0 30
-75 150 30
-75 135 30
-75 120 30
-75 105 30
-75 90 30
-75 75 30
-75 60 30
-75 45 30
-75 30 30
-75 15 30
-75 0 30
-50 150 30
-50 135 30
-50 120 30
-50 105 30
-50 90 30
-50 75 30
-50 60 30
-50 45 30
-50 30 30
-50 15 30
-50 0 30
-25 150 30
-25 135 30
-25 120 30
-25 105 30
-25 90 30
-25 75 30
-25 60 30
-25 45 30
-25 30 30
-25 15 30
-25 0 30
0 150 30
0 135 30
0 120 30
0 105 30
0 90 30
0 75 30
0 60 30
0 45 30
0 30 30
0 15 30
0 0 30
25 150 30
25 135 30
25 120 30
25 105 30
25 90 30
25 75 30
25 60 30
25 45 30
25 30 30
25 15 30
25 0 30
50 150 30
50 135 30
50 120 30
50 105 30
50 90 30
50 75 30
50 60 30
50 45 30
50 30 30
50 15 30
50 0 30
75 150 30
75 135 30
75 120 30
75 105 30
75 90 30
75 75 30
75 60 30
75 45 30
75 30 30
75 15 30
75 0 30
100 150 30
100 135 30
100 120 30
100 105 30
100 90 30
100 75 30
100 60 30
100 45 30
100 30 30
100 15 30
100 0 30
125 150 30
125 135 30
125 120 30
125 105 30
125 90 30
125 75 30
125 60 30
125 45 30
125 30 30
125 15 30
125 0 30
150 150 30
150 135 30
150 120 30
150 105 30
150 90 30
150 75 30
150 60 30
150 45 30
150 30 30
150 15 30
150 0 30
175 150 30
175 135 30
175 120 30
175 105 30
175 90 30
175 75 30
175 60 30
175 45 30
175 30 30
175 15 30
175 0 30
200 150 30
200 135 30
200 120 30
200 105 30
200 90 30
200 75 30
200 60 30
200 45 30
200 30 30
200 15 30
200 0 30
225 150 30
225 135 30
225 120 30
225 105 30
225 90 30
225 75 30
225 60 30
225 45 30
225 30 30
225 15 30
225 0 30
250 150 30
250 135 30
250 120 30
250 105 30
250 90 30
250 75 30
250 60 30
250 45 30
250 30 30
250 15 30
250 0 30
0 150 30
0 135 30
0 120 30
0 105 30
0 90 30
0 75 30
0 60 30
0 45 30
0 30 30
0 15 30
0 0 30
-250 150 45
-250 135 45
-250 120 45
-250 105 45
-250 90 45
-250 75 45
-250 60 45
-250 45 45
-250 30 45
-250 15 45
-250 0 45
-225 150 45
-225 135 45
-225 120 45
-225 105 45
-225 90 45
-225 75 45
-225 60 45
-225 45 45
-225 30 45
-225 15 45
-225 0 45
-200 150 45
-200 135 45
-200 120 45
-200 105 45
-200 90 45
-200 75 45
-200 60 45
-200 45 45
-200 30 45
-200 15 45
-200 0 45
-175 150 45
-175 135 45
-175 120 45
-175 105 45
-175 90 45
-175 75 45
-175 60 45
-175 45 45
-175 30 45
-175 15 45
-175 0 45
-150 150 45
-150 135 45
-150 120 45
-150 105 45
-150 90 45
-150 75 45
-150 60 45
-150 45 45
-150 30 45
-150 15 45
-150 0 45
-125 150 45
-125 135 45
-125 120 45
-125 105 45
-125 90 45
-125 75 45
-125 60 45
-125 45 45
-125 30 45
-125 15 45
-125 0 45
-100 150 45
-100 135 45
-100 120 45
-100 105 45
-100 90 45
-100 75 45
-100 60 45
-100 45 45
-100 30 45
-100 15 45
-100 0 45
-75 150 45
-75 135 45
-75 120 45
-75 105 45
-75 90 45
-75 75 45
-75 60 45
-75 45 45
-75 30 45
-75 15 45
-75 0 45
-50 150 45
-50 135 45
-50 120 45
-50 105 45
-50 90 45
-50 75 45
-50 60 45
-50 45 45
-50 30 45
-50 15 45
-50 0 45
-25 150 45
-25 135 45
-25 120 45
-25 105 45
-25 90 45
-25 75 45
-25 60 45
-25 45 45
-25 30 45
-25 15 45
-25 0 45
0 150 45
0 135 45
0 120 45
0 105 45
0 90 45
0 75 45
0 60 45
0 45 45
0 30 45
0 15 45
0 0 45
25 150 45
25 135 45
25 120 45
25 105 45
25 90 45
25 75 45
25 60 45
25 45 45
25 30 45
25 15 45
25 0 45
50 150 45
50 135 45
50 120 45
50 105 45
50 90 45
50 75 45
50 60 45
50 45 45
50 30 45
50 15 45
50 0 45
75 150 45
75 135 45
75 120 45
75 105 45
75 90 45
75 75 45
75 60 45
75 45 45
75 30 45
75 15 45
75 0 45
100 150 45
100 135 45
100 120 45
100 105 45
100 90 45
100 75 45
100 60 45
100 45 45
100 30 45
100 15 45
100 0 45
125 150 45
125 135 45
125 120 45
125 105 45
125 90 45
125 75 45
125 60 45
125 45 45
125 30 45
125 15 45
125 0 45
150 150 45
150 135 45
150 120 45
150 105 45
150 90 45
150 75 45
150 60 45
150 45 45
150 30 45
150 15 45
150 0 45
175 150 45
175 135 45
175 120 45
175 105 45
175 90 45
175 75 45
175 60 45
175 45 45
175 30 45
175 15 45
175 0 45
200 150 45
200 135 45
200 120 45
200 105 45
200 90 45
200 75 45
200 60 45
200 45 45
200 30 45
200 15 45
200 0 45
225 150 45
225 135 45
225 120 45
225 105 45
225 90 45
225 75 45
225 60 45
225 45 45
225 30 45
225 15 45
225 0 45
250 150 45
250 135 45
250 120 45
250 105 45
250 90 45
250 75 45
250 60 45
250 45 45
250 30 45
250 15 45
250 0 45
0 150 45
0 135 45
0 120 45
0 105 45
0 90 45
0 75 45
0 60 45
0 45 45
0 30 45
0 15 45
0 0 45
-250 150 60
-250 135 60
-250 120 60
-250 105 60
-250 90 60
-250 75 60
-250 60 60
-250 45 60
-250 30 60
-250 15 60
-250 0 60
-225 150 60
-225 135 60
-225 120 60
-225 105 60
-225 90 60
-225 75 60
[...]
POINT_DATA 2662
VECTORS displacement double
0 0 0
0 0 0
0 0 0
0 0 0
0 0 0
0 0 0
0 0 0
0 0 0
0 0 0
0 0 0
0 0 0
0 0 0
0 0 0
0 0 0
0 0 0
0 0 0
0 0 0
0 0 0
0 0 0
0 0 0
0 0 0
0 0 0
0 0 0
0 0 0
0 0 0
0 0 0
0 0 0
0 0 0
0 0 0
0 0 0
0 0 0
0 0 0
0 0 0
0 0 0
0 0 0
0 0 0
0 0 0
0 0 0
0 0 0
0 0 0
0 0 0
0 0 0
0 0 0
0 0 0
0 0 0
0 0 0
0 0 0
0 0 0
0 0 0
0 0 0
0 0 0
0 0 0
0 0 0
0 0 0
0 0 0
0 0 0
0 0 0
0 0 0
0 0 0
0 0 0
0 0 0
0 0 0
0 0 0
0 0 0
0 0 0
0 0 0
0 0 0
0 0 0
0 0 0
0 0 0
0 0 0
0 0 0
0 0 0
0 0 0
0 0 0
0 0 0
0 0 0
0 0 0
0 0 0
0 0 0
0 0 0
0 0 0
0 0 0
0 0 0
0 0 0
0 0 0
0 0 0
0 0 0
0 0 0
0 0 0
0 0 0
0 0 0
0 0 0
0 0 0
0 0 0
0 0 0
0 0 0
0 0 0
0 0 0
0 0 0
0 0 0
0 0 0
0 0 0
0 0 0
0 0 0
0 0 0
0 0 0
0 0 0
0 0 0
0 0 0
0.00909366 -0.025 -0.00093163
0.00887047 -0.0239038 -0.000889715
0.00888294 -0.023355 -0.00071521
0.00886203 -0.0230368 -0.000529153
0.00884897 -0.02281 -0.0003482
0.00883434 -0.0226347 -0.000176221
0.00881959 -0.0224909 -1.11223e-05
0.00880397 -0.0223653 0.000149369
0.00878687 -0.0222465 0.000305793
0.00876865 -0.0221213 0.000459191
0.00874151 -0.021976 0.000584248
0 0 0
0 0 0
0 0 0
0 0 0
0 0 0
0 0 0
0 0 0
0 0 0
0 0 0
0 0 0
0 0 0
0 0 0
0 0 0
0 0 0
0 0 0
0 0 0
0 0 0
0 0 0
0 0 0
0 0 0
0 0 0
0 0 0
0 0 0
0 0 0
0 0 0
0 0 0
0 0 0
0 0 0
0 0 0
0 0 0
0 0 0
0 0 0
0 0 0
0 0 0
0 0 0
0 0 0
0 0 0
0 0 0
0 0 0
0 0 0
0 0 0
0 0 0
0 0 0
0 0 0
0 0 0
0 0 0
0 0 0
0 0 0
0 0 0
0 0 0
0 0 0
0 0 0
0 0 0
0 0 0
0 0 0
0 0 0
0 0 0
0 0 0
0 0 0
0 0 0
0 0 0
0 0 0
0 0 0
0 0 0
0 0 0
0 0 0
0 0 0
0 0 0
0 0 0
0 0 0
0 0 0
0 0 0
0 0 0
0 0 0
0 0 0
0 0 0
0 0 0
0 0 0
0 0 0
0 0 0
0 0 0
0 0 0
0 0 0
0 0 0
0 0 0
0 0 0
0 0 0
0 0 0
0 0 0
0 0 0
0 0 0
0 0 0
0 0 0
0 0 0
0 0 0
0 0 0
0 0 0
0 0 0
0 0 0
0 0 0
0 0 0
0 0 0
0 0 0
0 0 0
0 0 0
0 0 0
0 0 0
0 0 0
0 0 0
0 0 0
0.00858896 -0.025 -0.000931621
0.00881235 -0.0239038 -0.000889709
0.0087999 -0.023355 -0.000715205
0.00882075 -0.0230368 -0.000529149
0.00883368 -0.02281 -0.000348196
0.00884816 -0.0226347 -0.000176218
0.00886276 -0.0224908 -1.11196e-05
0.00887825 -0.0223653 0.000149371
0.00889526 -0.0222465 0.000305795
0.00891347 -0.0221213 0.000459192
0.00894071 -0.021976 0.000584247
0 0 0
0 0 0
0 0 0
0 0 0
0 0 0
0 0 0
0 0 0
0 0 0
0 0 0
0 0 0
0 0 0
0 0 0
0 0 0
0 0 0
0 0 0
0 0 0
0 0 0
0 0 0
0 0 0
0 0 0
0 0 0
0 0 0
0 0 0
0 0 0
0 0 0
0 0 0
0 0 0
0 0 0
0 0 0
0 0 0
0 0 0
0 0 0
0 0 0
0 0 0
0 0 0
0 0 0
0 0 0
0 0 0
0 0 0
0 0 0
0 0 0
0 0 0
0 0 0
0 0 0
0 0 0
0 0 0
0 0 0
0 0 0
0 0 0
0 0 0
0 0 0
0 0 0
0 0 0
0 0 0
0 0 0
0 0 0
0 0 0
0 0 0
0 0 0
0 0 0
0 0 0
0 0 0
0 0 0
0 0 0
0 0 0
0 0 0
0 0 0
0 0 0
0 0 0
0 0 0
0 0 0
0 0 0
0 0 0
0 0 0
0 0 0
0 0 0
0 0 0
0 0 0
0 0 0
0 0 0
0 0 0
0 0 0
0 0 0
0 0 0
0 0 0
0 0 0
0 0 0
0 0 0
0 0 0
0 0 0
0 0 0
0 0 0
0 0 0
0 0 0
0 0 0
0 0 0
0 0 0
0 0 0
0 0 0
0 0 0
0 0 0
0 0 0
0 0 0
0 0 0
0 0 0
0 0 0
0 0 0
0 0 0
0 0 0
0 0 0
0.00909011 -0.025 -0.000798467
0.00886655 -0.0238063 -0.000727684
0.00888559 -0.0232131 -0.000592023
0.00886428 -0.0228879 -0.000441326
0.00885061 -0.0226637 -0.000297359
0.00883517 -0.0224922 -0.00015951
0.00881984 -0.0223516 -2.72052e-05
0.00880374 -0.0222289 0.000100596
0.0087862 -0.0221133 0.000224649
0.00876781 -0.0219957 0.000340538
0.00874032 -0.0218568 0.000450939
0 0 0
0 0 0
0 0 0
0 0 0
0 0 0
0 0 0
0 0 0
0 0 0
0 0 0
0 0 0
0 0 0
0 0 0
0 0 0
0 0 0
0 0 0
0 0 0
0 0 0
0 0 0
0 0 0
0 0 0
0 0 0
0 0 0
0 0 0
0 0 0
0 0 0
0 0 0
0 0 0
0 0 0
0 0 0
0 0 0
0 0 0
0 0 0
0 0 0
0 0 0
0 0 0
0 0 0
0 0 0
0 0 0
0 0 0
0 0 0
0 0 0
0 0 0
0 0 0
0 0 0
0 0 0
0 0 0
0 0 0
0 0 0
0 0 0
0 0 0
0 0 0
0 0 0
0 0 0
0 0 0
0 0 0
0 0 0
0 0 0
0 0 0
0 0 0
0 0 0
0 0 0
0 0 0
0 0 0
0 0 0
0 0 0
0 0 0
0 0 0
0 0 0
0 0 0
0 0 0
0 0 0
0 0 0
0 0 0
0 0 0
0 0 0
0 0 0
0 0 0
0 0 0
0 0 0
0 0 0
0 0 0
0 0 0
0 0 0
0 0 0
0 0 0
0 0 0
0 0 0
0 0 0
0 0 0
0 0 0
0 0 0
0 0 0
0 0 0
0 0 0
0 0 0
0 0 0
0 0 0
0 0 0
0 0 0
0 0 0
0 0 0
0 0 0
0 0 0
0 0 0
0 0 0
0 0 0
0 0 0
0 0 0
0 0 0
0 0 0
0.00859172 -0.025 -0.000798448
0.00881548 -0.0238063 -0.00072767
0.00879651 -0.0232131 -0.000592012
0.0088178 -0.0228878 -0.000441316
0.00883139 -0.0226637 -0.00029735
0.00884672 -0.0224921 -0.000159502
0.00886195 -0.0223515 -2.71977e-05
0.00887796 -0.0222288 0.000100602
0.00889545 -0.0221132 0.000224654
0.00891386 -0.0219957 0.000340542
0.00894146 -0.0218567 0.00045094
0 0 0
0 0 0
0 0 0
0 0 0
0 0 0
0 0 0
0 0 0
0 0 0
0 0 0
0 0 0
0 0 0
0 0 0
0 0 0
0 0 0
0 0 0
0 0 0
0 0 0
0 0 0
0 0 0
0 0 0
0 0 0
0 0 0
0 0 0
0 0 0
0 0 0
0 0 0
0 0 0
0 0 0
0 0 0
0 0 0
0 0 0
0 0 0
0 0 0
0 0 0
0 0 0
0 0 0
0 0 0
0 0 0
0 0 0
0 0 0
0 0 0
0 0 0
0 0 0
0 0 0
0 0 0
0 0 0
0 0 0
0 0 0
0 0 0
0 0 0
0 0 0
0 0 0
0 0 0
0 0 0
0 0 0
0 0 0
0 0 0
0 0 0
0 0 0
0 0 0
0 0 0
0 0 0
0 0 0
0 0 0
0 0 0
0 0 0
0 0 0
0 0 0
0 0 0
0 0 0
0 0 0
0 0 0
0 0 0
0 0 0
0 0 0
0 0 0
0 0 0
0 0 0
0 0 0
0 0 0
0 0 0
0 0 0
0 0 0
0 0 0
0 0 0
0 0 0
0 0 0
0 0 0
0 0 0
0 0 0
0 0 0
0 0 0
0 0 0
0 0 0
0 0 0
0 0 0
0 0 0
0 0 0
0 0 0
0 0 0
0 0 0
0 0 0
0 0 0
0 0 0
0 0 0
0 0 0
0 0 0
0 0 0
0 0 0
0 0 0
0.00910587 -0.025 -0.000590029
0.00886891 -0.0237543 -0.000544125
0.00888772 -0.0231377 -0.000453056
0.00886503 -0.0227988 -0.00034944
0.0088511 -0.0225689 -0.000243399
0.00883537 -0.0223952 -0.000141021
0.00881979 -0.0222542 -4.24526e-05
0.00880351 -0.0221319 5.22651e-05
0.00878565 -0.0220176 0.000142502
0.00876727 -0.0218982 0.000227572
0.00874037 -0.0217573 0.000310855
0 0 0
0 0 0
0 0 0
0 0 0
0 0 0
0 0 0
0 0 0
0 0 0
0 0 0
0 0 0
0 0 0
0 0 0
0 0 0
0 0 0
0 0 0
0 0 0
0 0 0
0 0 0
0 0 0
0 0 0
0 0 0
0 0 0
0 0 0
0 0 0
0 0 0
0 0 0
0 0 0
0 0 0
0 0 0
0 0 0
0 0 0
0 0 0
0 0 0
0 0 0
0 0 0
0 0 0
0 0 0
0 0 0
0 0 0
0 0 0
0 0 0
0 0 0
0 0 0
0 0 0
0 0 0
0 0 0
0 0 0
0 0 0
0 0 0
0 0 0
0 0 0
0 0 0
0 0 0
0 0 0
0 0 0
0 0 0
0 0 0
0 0 0
0 0 0
0 0 0
0 0 0
0 0 0
0 0 0
0 0 0
0 0 0
0 0 0
0 0 0
0 0 0
0 0 0
0 0 0
0 0 0
0 0 0
0 0 0
0 0 0
0 0 0
0 0 0
0 0 0
0 0 0
0 0 0
0 0 0
0 0 0
0 0 0
0 0 0
0 0 0
0 0 0
0 0 0
0 0 0
0 0 0
0 0 0
0 0 0
0 0 0
0 0 0
0 0 0
0 0 0
0 0 0
0 0 0
0 0 0
0 0 0
0 0 0
0 0 0
0 0 0
0 0 0
0 0 0
0 0 0
0 0 0
0 0 0
0 0 0
0 0 0
0 0 0
0 0 0
0.00857548 -0.025 -0.000589996
0.00881259 -0.0237543 -0.000544099
0.00879384 -0.0231377 -0.000453034
0.00881652 -0.0227988 -0.000349421
0.00883039 -0.0225689 -0.000243382
0.00884605 -0.0223952 -0.000141006
0.00886156 -0.0222541 -4.2439e-05
0.00887778 -0.0221319 5.22771e-05
0.0088956 -0.0220176 0.000142512
0.008914 -0.0218982 0.000227579
0.00894098 -0.0217573 0.000310858
0 0 0
0 0 0
0 0 0
0 0 0
0 0 0
0 0 0
0 0 0
0 0 0
0 0 0
0 0 0
0 0 0
0 0 0
0 0 0
0 0 0
0 0 0
0 0 0
0 0 0
0 0 0
0 0 0
0 0 0
0 0 0
0 0 0
0 0 0
0 0 0
0 0 0
0 0 0
0 0 0
0 0 0
0 0 0
0 0 0
0 0 0
0 0 0
0 0 0
0 0 0
0 0 0
0 0 0
0 0 0
0 0 0
0 0 0
0 0 0
0 0 0
0 0 0
0 0 0
0 0 0
0 0 0
0 0 0
0 0 0
0 0 0
0 0 0
0 0 0
0 0 0
0 0 0
0 0 0
0 0 0
0 0 0
0 0 0
0 0 0
0 0 0
0 0 0
0 0 0
0 0 0
0 0 0
0 0 0
0 0 0
0 0 0
0 0 0
0 0 0
0 0 0
0 0 0
0 0 0
0 0 0
0 0 0
0 0 0
0 0 0
0 0 0
0 0 0
0 0 0
0 0 0
0 0 0
0 0 0
0 0 0
0 0 0
0 0 0
0 0 0
0 0 0
0 0 0
0 0 0
0 0 0
0 0 0
0 0 0
0 0 0
0 0 0
0 0 0
0 0 0
0 0 0
0 0 0
0 0 0
0 0 0
0 0 0
0 0 0
0 0 0
0 0 0
0 0 0
0 0 0
0 0 0
0 0 0
0 0 0
0 0 0
0 0 0
0 0 0
0.00910235 -0.025 -0.000397187
0.00887021 -0.0237263 -0.000371105
0.00888788 -0.023099 -0.000320461
0.0088655 -0.0227507 -0.00025517
0.00885145 -0.0225138 -0.000187699
0.00883558 -0.0223357 -0.000120615
0.00881987 -0.0221922 -5.62056e-05
0.00880343 -0.0220687 5.19479e-06
0.00878557 -0.0219527 6.30971e-05
0.00876726 -0.0218323 0.000118452
0.00873791 -0.0216898 0.0001704
0 0 0
0 0 0
0 0 0
0 0 0
0 0 0
0 0 0
0 0 0
0 0 0
0 0 0
0 0 0
0 0 0
0 0 0
0 0 0
0 0 0
0 0 0
0 0 0
0 0 0
0 0 0
0 0 0
0 0 0
0 0 0
0 0 0
0 0 0
0 0 0
0 0 0
0 0 0
0 0 0
0 0 0
0 0 0
0 0 0
0 0 0
0 0 0
0 0 0
0 0 0
0 0 0
0 0 0
0 0 0
0 0 0
0 0 0
0 0 0
0 0 0
0 0 0
0 0 0
0 0 0
0 0 0
0 0 0
0 0 0
0 0 0
0 0 0
0 0 0
0 0 0
0 0 0
0 0 0
0 0 0
0 0 0
0 0 0
0 0 0
0 0 0
0 0 0
0 0 0
0 0 0
0 0 0
0 0 0
0 0 0
0 0 0
0 0 0
0 0 0
0 0 0
0 0 0
0 0 0
0 0 0
0 0 0
0 0 0
0 0 0
0 0 0
0 0 0
0 0 0
0 0 0
0 0 0
0 0 0
0 0 0
0 0 0
0 0 0
0 0 0
0 0 0
0 0 0
0 0 0
0 0 0
0 0 0
0 0 0
0 0 0
0 0 0
0 0 0
0 0 0
0 0 0
0 0 0
0 0 0
0 0 0
0 0 0
0 0 0
0 0 0
0 0 0
0 0 0
0 0 0
0 0 0
0 0 0
0 0 0
0 0 0
0 0 0
0 0 0
0.00857869 -0.025 -0.000397148
0.00881092 -0.0237263 -0.000371071
0.00879328 -0.023099 -0.000320433
0.00881565 -0.0227507 -0.000255145
0.00882967 -0.0225138 -0.000187677
0.00884547 -0.0223357 -0.000120595
0.00886113 -0.0221922 -5.61879e-05
0.00887752 -0.0220687 5.21034e-06
0.00889535 -0.0219527 6.311e-05
0.00891366 -0.0218323 0.000118461
0.00894305 -0.0216898 0.000170405
0 0 0
0 0 0
0 0 0
0 0 0
0 0 0
0 0 0
0 0 0
0 0 0
0 0 0
0 0 0
0 0 0
0 0 0
0 0 0
0 0 0
0 0 0
0 0 0
0 0 0
0 0 0
0 0 0
0 0 0
0 0 0
0 0 0
0 0 0
0 0 0
0 0 0
0 0 0
0 0 0
0 0 0
0 0 0
0 0 0
0 0 0
0 0 0
0 0 0
0 0 0
0 0 0
0 0 0
0 0 0
0 0 0
0 0 0
0 0 0
0 0 0
0 0 0
0 0 0
0 0 0
0 0 0
0 0 0
0 0 0
0 0 0
0 0 0
0 0 0
0 0 0
0 0 0
0 0 0
0 0 0
0 0 0
0 0 0
0 0 0
0 0 0
0 0 0
0 0 0
0 0 0
0 0 0
0 0 0
0 0 0
0 0 0
0 0 0
0 0 0
0 0 0
0 0 0
0 0 0
0 0 0
0 0 0
0 0 0
0 0 0
0 0 0
0 0 0
0 0 0
0 0 0
0 0 0
0 0 0
0 0 0
0 0 0
0 0 0
0 0 0
0 0 0
0 0 0
0 0 0
0 0 0
0 0 0
0 0 0
0 0 0
0 0 0
0 0 0
0 0 0
0 0 0
0 0 0
0 0 0
0 0 0
0 0 0
0 0 0
0 0 0
0 0 0
0 0 0
0 0 0
0 0 0
0 0 0
0 0 0
0 0 0
0 0 0
0 0 0
0.00912892 -0.025 -0.000232123
0.00885695 -0.0237272 -0.000232687
0.00888846 -0.0230896 -0.000198432
0.00886461 -0.0227336 -0.000165864
0.00885109 -0.0224898 -0.000131359
0.00883514 -0.0223073 -9.90286e-05
0.00881936 -0.0221609 -6.84953e-05
0.00880287 -0.0220354 -4.01452e-05
0.00878487 -0.0219182 -1.36994e-05
0.00876602 -0.0217961 1.03897e-05
0.0087479 -0.0216551 3.45916e-05
0 0 0
0 0 0
0 0 0
0 0 0
0 0 0
0 0 0
0 0 0
0 0 0
0 0 0
0 0 0
0 0 0
0 0 0
0 0 0
0 0 0
0 0 0
0 0 0
0 0 0
0 0 0
0 0 0
0 0 0
0 0 0
0 0 0
0 0 0
0 0 0
0 0 0
0 0 0
0 0 0
0 0 0
0 0 0
0 0 0
0 0 0
0 0 0
0 0 0
0 0 0
0 0 0
0 0 0
0 0 0
0 0 0
0 0 0
0 0 0
0 0 0
0 0 0
0 0 0
0 0 0
0 0 0
0 0 0
0 0 0
0 0 0
0 0 0
0 0 0
0 0 0
0 0 0
0 0 0
0 0 0
0 0 0
0 0 0
0 0 0
0 0 0
0 0 0
0 0 0
0 0 0
0 0 0
0 0 0
0 0 0
0 0 0
0 0 0
0 0 0
0 0 0
0 0 0
0 0 0
0 0 0
0 0 0
0 0 0
0 0 0
0 0 0
0 0 0
0 0 0
0 0 0
0 0 0
0 0 0
0 0 0
0 0 0
0 0 0
0 0 0
0 0 0
0 0 0
0 0 0
0 0 0
0 0 0
0 0 0
0 0 0
0 0 0
0 0 0
0 0 0
0 0 0
0 0 0
0 0 0
0 0 0
0 0 0
0 0 0
0 0 0
0 0 0
0 0 0
0 0 0
0 0 0
0 0 0
0 0 0
0 0 0
0 0 0
0 0 0
0.00855194 -0.025 -0.000232075
0.00882392 -0.0237272 -0.00023265
0.00879241 -0.0230896 -0.0001984
0.00881623 -0.0227336 -0.000165836
0.00882972 -0.0224898 -0.000131334
0.00884562 -0.0223073 -9.90061e-05
0.00886134 -0.0221609 -6.84751e-05
0.00887779 -0.0220354 -4.01274e-05
0.00889576 -0.0219182 -1.36846e-05
0.00891458 -0.0217961 1.04008e-05
0.00893271 -0.0216551 3.45972e-05
0 0 0
0 0 0
0 0 0
0 0 0
0 0 0
0 0 0
0 0 0
0 0 0
0 0 0
0 0 0
0 0 0
0 0 0
0 0 0
0 0 0
0 0 0
0 0 0
0 0 0
0 0 0
0 0 0
0 0 0
0 0 0
0 0 0
0 0 0
0 0 0
0 0 0
0 0 0
0 0 0
0 0 0
0 0 0
0 0 0
0 0 0
0 0 0
0 0 0
0 0 0
0 0 0
0 0 0
0 0 0
0 0 0
0 0 0
0 0 0
0 0 0
0 0 0
0 0 0
0 0 0
0 0 0
0 0 0
0 0 0
0 0 0
0 0 0
0 0 0
0 0 0
0 0 0
0 0 0
0 0 0
0 0 0
0 0 0
0 0 0
0 0 0
0 0 0
0 0 0
0 0 0
0 0 0
0 0 0
0 0 0
0 0 0
0 0 0
0 0 0
0 0 0
0 0 0
0 0 0
0 0 0
0 0 0
0 0 0
0 0 0
0 0 0
0 0 0
0 0 0
0 0 0
0 0 0
0 0 0
0 0 0
0 0 0
0 0 0
0 0 0
0 0 0
0 0 0
0 0 0
0 0 0
0 0 0
0 0 0
0 0 0
0 0 0
0 0 0
0 0 0
0 0 0
0 0 0
0 0 0
0 0 0
0 0 0
0 0 0
0 0 0
0 0 0
0 0 0
0 0 0
0 0 0
0 0 0
0 0 0
0 0 0
0 0 0
0 0 0
0.00900368 -0.025 -0.000215345
0.00891187 -0.0237687 -0.000135183
0.00888288 -0.0231075 -9.77777e-05
0.0088687 -0.0227385 -7.99092e-05
0.00885295 -0.0224904 -7.55123e-05
0.00883736 -0.0223053 -7.62493e-05
0.00882151 -0.0221571 -7.93231e-05
0.00880504 -0.0220302 -8.37649e-05
0.00878726 -0.0219124 -8.93307e-05
0.00877053 -0.0217919 -9.555e-05
0.00869982 -0.021652 -0.000105641
0 0 0
0 0 0
0 0 0
0 0 0
0 0 0
0 0 0
0 0 0
0 0 0
0 0 0
0 0 0
0 0 0
0 0 0
0 0 0
0 0 0
0 0 0
0 0 0
0 0 0
0 0 0
0 0 0
0 0 0
0 0 0
0 0 0
0 0 0
0 0 0
0 0 0
0 0 0
0 0 0
0 0 0
0 0 0
0 0 0
0 0 0
0 0 0
0 0 0
0 0 0
0 0 0
0 0 0
0 0 0
0 0 0
0 0 0
0 0 0
0 0 0
0 0 0
0 0 0
0 0 0
0 0 0
0 0 0
0 0 0
0 0 0
0 0 0
0 0 0
0 0 0
0 0 0
0 0 0
0 0 0
0 0 0
0 0 0
0 0 0
0 0 0
0 0 0
0 0 0
0 0 0
0 0 0
0 0 0
0 0 0
0 0 0
0 0 0
0 0 0
0 0 0
0 0 0
0 0 0
0 0 0
0 0 0
0 0 0
0 0 0
0 0 0
0 0 0
0 0 0
0 0 0
0 0 0
0 0 0
0 0 0
0 0 0
0 0 0
0 0 0
0 0 0
0 0 0
0 0 0
0 0 0
0 0 0
0 0 0
0 0 0
0 0 0
0 0 0
0 0 0
0 0 0
0 0 0
0 0 0
0 0 0
0 0 0
0 0 0
0 0 0
0 0 0
0 0 0
0 0 0
0 0 0
0 0 0
0 0 0
0 0 0
0 0 0
0 0 0
0.00867705 -0.025 -0.000215316
0.0087688 -0.0237687 -0.000135143
0.00879774 -0.0231075 -9.77437e-05
0.00881187 -0.0227385 -7.98796e-05
0.00882759 -0.0224904 -7.5486e-05
0.00884313 -0.0223053 -7.62257e-05
0.00885894 -0.0221571 -7.93019e-05
0.00887536 -0.0220302 -8.37462e-05
0.0088931 -0.0219124 -8.93149e-05
0.00890978 -0.0217919 -9.55381e-05
0.00898044 -0.021652 -0.000105628
0 0 0
0 0 0
0 0 0
0 0 0
0 0 0
0 0 0
0 0 0
0 0 0
0 0 0
0 0 0
0 0 0
0 0 0
0 0 0
0 0 0
0 0 0
0 0 0
0 0 0
0 0 0
0 0 0
0 0 0
0 0 0
0 0 0
0 0 0
0 0 0
0 0 0
0 0 0
0 0 0
0 0 0
0 0 0
0 0 0
0 0 0
0 0 0
0 0 0
0 0 0
0 0 0
0 0 0
0 0 0
0 0 0
0 0 0
0 0 0
0 0 0
0 0 0
0 0 0
0 0 0
0 0 0
0 0 0
0 0 0
0 0 0
0 0 0
0 0 0
0 0 0
0 0 0
0 0 0
0 0 0
0 0 0
0 0 0
0 0 0
0 0 0
0 0 0
0 0 0
0 0 0
0 0 0
0 0 0
0 0 0
0 0 0
0 0 0
0 0 0
0 0 0
0 0 0
0 0 0
0 0 0
0 0 0
0 0 0
0 0 0
0 0 0
0 0 0
0 0 0
0 0 0
0 0 0
0 0 0
0 0 0
0 0 0
0 0 0
0 0 0
0 0 0
0 0 0
0 0 0
0 0 0
0 0 0
0 0 0
0 0 0
0 0 0
0 0 0
0 0 0
0 0 0
0 0 0
0 0 0
0 0 0
0 0 0
0 0 0
0 0 0
0 0 0
0 0 0
0 0 0
0 0 0
0 0 0
0 0 0
0 0 0
0 0 0
0 0 0
0.00903639 -0.025 0.000106998
0.00891323 -0.0238448 8.98458e-05
0.00888274 -0.0231761 6.13343e-05
0.00886663 -0.0227854 2.81788e-05
0.00885095 -0.0225251 -9.08399e-06
0.00883535 -0.0223343 -4.78115e-05
0.00881943 -0.0221836 -8.66261e-05
0.00880281 -0.0220556 -0.000125162
0.00878488 -0.021937 -0.000163636
0.00876566 -0.0218148 -0.00020261
0.00874758 -0.0216715 -0.000241188
0 0 0
0 0 0
0 0 0
0 0 0
0 0 0
0 0 0
0 0 0
0 0 0
0 0 0
0 0 0
0 0 0
0 0 0
0 0 0
0 0 0
0 0 0
0 0 0
0 0 0
0 0 0
0 0 0
0 0 0
0 0 0
0 0 0
0 0 0
0 0 0
0 0 0
0 0 0
0 0 0
0 0 0
0 0 0
0 0 0
0 0 0
0 0 0
0 0 0
0 0 0
0 0 0
0 0 0
0 0 0
0 0 0
0 0 0
0 0 0
0 0 0
0 0 0
0 0 0
0 0 0
0 0 0
0 0 0
0 0 0
0 0 0
0 0 0
0 0 0
0 0 0
0 0 0
0 0 0
0 0 0
0 0 0
0 0 0
0 0 0
0 0 0
0 0 0
0 0 0
0 0 0
0 0 0
0 0 0
0 0 0
0 0 0
0 0 0
0 0 0
0 0 0
0 0 0
0 0 0
0 0 0
0 0 0
0 0 0
0 0 0
0 0 0
0 0 0
0 0 0
0 0 0
0 0 0
0 0 0
0 0 0
0 0 0
0 0 0
0 0 0
0 0 0
0 0 0
0 0 0
0 0 0
0 0 0
0 0 0
0 0 0
0 0 0
0 0 0
0 0 0
0 0 0
0 0 0
0 0 0
0 0 0
0 0 0
0 0 0
0 0 0
0 0 0
0 0 0
0 0 0
0 0 0
0 0 0
0 0 0
0 0 0
0 0 0
0 0 0
0.0086442 -0.025 0.000107039
0.00876724 -0.0238448 8.98834e-05
0.00879764 -0.0231761 6.13664e-05
0.00881369 -0.0227854 2.82068e-05
0.00882931 -0.0225251 -9.05909e-06
0.00884488 -0.0223343 -4.77891e-05
0.00886076 -0.0221836 -8.66061e-05
0.00887733 -0.0220556 -0.000125145
0.0088952 -0.021937 -0.000163622
0.00891436 -0.0218148 -0.000202599
0.00893235 -0.0216715 -0.00024118
0 0 0
0 0 0
0 0 0
0 0 0
0 0 0
0 0 0
0 0 0
0 0 0
0 0 0
0 0 0
0 0 0
0 0 0
0 0 0
0 0 0
0 0 0
0 0 0
0 0 0
0 0 0
0 0 0
0 0 0
0 0 0
0 0 0
0 0 0
0 0 0
0 0 0
0 0 0
0 0 0
0 0 0
0 0 0
0 0 0
0 0 0
0 0 0
0 0 0
0 0 0
0 0 0
0 0 0
0 0 0
0 0 0
0 0 0
0 0 0
0 0 0
0 0 0
0 0 0
0 0 0
0 0 0
0 0 0
0 0 0
0 0 0
0 0 0
0 0 0
0 0 0
0 0 0
0 0 0
0 0 0
0 0 0
0 0 0
0 0 0
0 0 0
0 0 0
0 0 0
0 0 0
0 0 0
0 0 0
0 0 0
0 0 0
0 0 0
0 0 0
0 0 0
0 0 0
0 0 0
0 0 0
0 0 0
0 0 0
0 0 0
0 0 0
0 0 0
0 0 0
0 0 0
0 0 0
0 0 0
0 0 0
0 0 0
0 0 0
0 0 0
0 0 0
0 0 0
0 0 0
0 0 0
0 0 0
0 0 0
0 0 0
0 0 0
0 0 0
0 0 0
0 0 0
0 0 0
0 0 0
0 0 0
0 0 0
0 0 0
0 0 0
0 0 0
0 0 0
0 0 0
0 0 0
0 0 0
0 0 0
0 0 0
0 0 0
0 0 0
0.00903422 -0.025 0.000334484
0.0089132 -0.0238801 0.000290137
0.00888251 -0.0232239 0.000215425
0.00886625 -0.0228359 0.000136802
0.0088506 -0.0225763 5.79293e-05
0.00883506 -0.0223859 -1.93182e-05
0.00881922 -0.0222355 -9.42631e-05
0.00880266 -0.0221079 -0.000167088
0.00878483 -0.0219895 -0.000238379
0.00876507 -0.0218666 -0.000308571
0.00874828 -0.0217228 -0.000377183
0 0 0
0 0 0
0 0 0
0 0 0
0 0 0
0 0 0
0 0 0
0 0 0
0 0 0
0 0 0
0 0 0
0 0 0
0 0 0
0 0 0
0 0 0
0 0 0
0 0 0
0 0 0
0 0 0
0 0 0
0 0 0
0 0 0
0 0 0
0 0 0
0 0 0
0 0 0
0 0 0
0 0 0
0 0 0
0 0 0
0 0 0
0 0 0
0 0 0
0 0 0
0 0 0
0 0 0
0 0 0
0 0 0
0 0 0
0 0 0
0 0 0
0 0 0
0 0 0
0 0 0
0 0 0
0 0 0
0 0 0
0 0 0
0 0 0
0 0 0
0 0 0
0 0 0
0 0 0
0 0 0
0 0 0
0 0 0
0 0 0
0 0 0
0 0 0
0 0 0
0 0 0
0 0 0
0 0 0
0 0 0
0 0 0
0 0 0
0 0 0
0 0 0
0 0 0
0 0 0
0 0 0
0 0 0
0 0 0
0 0 0
0 0 0
0 0 0
0 0 0
0 0 0
0 0 0
0 0 0
0 0 0
0 0 0
0 0 0
0 0 0
0 0 0
0 0 0
0 0 0
0 0 0
0 0 0
0 0 0
0 0 0
0 0 0
0 0 0
0 0 0
0 0 0
0 0 0
0 0 0
0 0 0
0 0 0
0 0 0
0 0 0
0 0 0
0 0 0
0 0 0
0 0 0
0 0 0
0 0 0
0 0 0
0 0 0
0 0 0
0.00864617 -0.025 0.000334522
0.00876701 -0.0238801 0.00029017
0.00879758 -0.0232239 0.000215453
0.00881376 -0.0228359 0.000136826
0.00882936 -0.0225763 5.79511e-05
0.00884487 -0.0223859 -1.92987e-05
0.00886067 -0.0222356 -9.42456e-05
0.00887719 -0.0221079 -0.000167072
0.00889496 -0.0219895 -0.000238366
0.00891463 -0.0218666 -0.000308562
0.0089313 -0.0217228 -0.000377177
0 0 0
0 0 0
0 0 0
0 0 0
0 0 0
0 0 0
0 0 0
0 0 0
0 0 0
0 0 0
0 0 0
0 0 0
0 0 0
0 0 0
0 0 0
0 0 0
0 0 0
0 0 0
0 0 0
0 0 0
0 0 0
0 0 0
0 0 0
0 0 0
0 0 0
0 0 0
0 0 0
0 0 0
0 0 0
0 0 0
0 0 0
0 0 0
0 0 0
0 0 0
0 0 0
0 0 0
0 0 0
0 0 0
0 0 0
0 0 0
0 0 0
0 0 0
0 0 0
0 0 0
0 0 0
0 0 0
0 0 0
0 0 0
0 0 0
0 0 0
0 0 0
0 0 0
0 0 0
0 0 0
0 0 0
0 0 0
0 0 0
0 0 0
0 0 0
0 0 0
0 0 0
0 0 0
0 0 0
0 0 0
0 0 0
0 0 0
0 0 0
0 0 0
0 0 0
0 0 0
0 0 0
0 0 0
0 0 0
0 0 0
0 0 0
0 0 0
0 0 0
0 0 0
0 0 0
0 0 0
0 0 0
0 0 0
0 0 0
0 0 0
0 0 0
0 0 0
0 0 0
0 0 0
0 0 0
0 0 0
0 0 0
0 0 0
0 0 0
0 0 0
0 0 0
0 0 0
0 0 0
0 0 0
0 0 0
0 0 0
0 0 0
0 0 0
0 0 0
0 0 0
0 0 0
0 0 0
0 0 0
0 0 0
0 0 0
0 0 0
0.00903054 -0.025 0.000561452
0.00891291 -0.0239166 0.000492725
0.00888216 -0.0232814 0.000370924
0.00886556 -0.0229045 0.000245617
0.00884998 -0.0226513 0.000124176
0.00883457 -0.0224644 8.05857e-06
0.0088189 -0.0223159 -0.000103093
0.00880248 -0.0221893 -0.000210298
0.00878476 -0.0220717 -0.000314585
0.00876507 -0.0219495 -0.000416704
0.00874832 -0.0218067 -0.000516618
0 0 0
0 0 0
0 0 0
0 0 0
0 0 0
0 0 0
0 0 0
0 0 0
0 0 0
0 0 0
0 0 0
0 0 0
0 0 0
0 0 0
0 0 0
0 0 0
0 0 0
0 0 0
0 0 0
0 0 0
0 0 0
0 0 0
0 0 0
0 0 0
0 0 0
0 0 0
0 0 0
0 0 0
0 0 0
0 0 0
0 0 0
0 0 0
0 0 0
0 0 0
0 0 0
0 0 0
0 0 0
0 0 0
0 0 0
0 0 0
0 0 0
0 0 0
0 0 0
0 0 0
0 0 0
0 0 0
0 0 0
0 0 0
0 0 0
0 0 0
0 0 0
0 0 0
0 0 0
0 0 0
0 0 0
0 0 0
0 0 0
0 0 0
0 0 0
0 0 0
0 0 0
0 0 0
0 0 0
0 0 0
0 0 0
0 0 0
0 0 0
0 0 0
0 0 0
0 0 0
0 0 0
0 0 0
0 0 0
0 0 0
0 0 0
0 0 0
0 0 0
0 0 0
0 0 0
0 0 0
0 0 0
0 0 0
0 0 0
0 0 0
0 0 0
0 0 0
0 0 0
0 0 0
0 0 0
0 0 0
0 0 0
0 0 0
0 0 0
0 0 0
0 0 0
0 0 0
0 0 0
0 0 0
0 0 0
0 0 0
0 0 0
0 0 0
0 0 0
0 0 0
0 0 0
0 0 0
0 0 0
0 0 0
0 0 0
0 0 0
0.00864954 -0.025 0.000561483
0.00876694 -0.0239166 0.000492751
0.00879754 -0.0232814 0.000370945
0.00881406 -0.0229045 0.000245635
0.0088296 -0.0226514 0.000124193
0.00884498 -0.0224644 8.07342e-06
0.00886065 -0.0223159 -0.000103079
0.00887704 -0.0221893 -0.000210286
0.00889469 -0.0220717 -0.000314576
0.00891428 -0.0219495 -0.000416697
0.00893087 -0.0218067 -0.000516614
0 0 0
0 0 0
0 0 0
0 0 0
0 0 0
0 0 0
0 0 0
0 0 0
0 0 0
0 0 0
0 0 0
0 0 0
0 0 0
0 0 0
0 0 0
0 0 0
0 0 0
0 0 0
0 0 0
0 0 0
0 0 0
0 0 0
0 0 0
0 0 0
0 0 0
0 0 0
0 0 0
0 0 0
0 0 0
0 0 0
0 0 0
0 0 0
0 0 0
0 0 0
0 0 0
0 0 0
0 0 0
0 0 0
0 0 0
0 0 0
0 0 0
0 0 0
0 0 0
0 0 0
0 0 0
0 0 0
0 0 0
0 0 0
0 0 0
0 0 0
0 0 0
0 0 0
0 0 0
0 0 0
0 0 0
0 0 0
0 0 0
0 0 0
0 0 0
0 0 0
0 0 0
0 0 0
0 0 0
0 0 0
0 0 0
0 0 0
0 0 0
0 0 0
0 0 0
0 0 0
0 0 0
0 0 0
0 0 0
0 0 0
0 0 0
0 0 0
0 0 0
0 0 0
0 0 0
0 0 0
0 0 0
0 0 0
0 0 0
0 0 0
0 0 0
0 0 0
0 0 0
0 0 0
0 0 0
0 0 0
0 0 0
0 0 0
0 0 0
0 0 0
0 0 0
0 0 0
0 0 0
0 0 0
0 0 0
0 0 0
0 0 0
0 0 0
0 0 0
0 0 0
0 0 0
0 0 0
0 0 0
0 0 0
0 0 0
0 0 0
0.0090255 -0.025 0.000835123
0.00890991 -0.0239706 0.00072531
0.00888034 -0.0233691 0.000536759
0.00886348 -0.0230073 0.000355597
0.00884842 -0.0227615 0.00018883
0.00883354 -0.0225776 3.35218e-05
0.0088183 -0.0224301 -0.000113561
0.00880221 -0.0223038 -0.000255039
0.00878473 -0.0221863 -0.000392809
0.00876522 -0.0220643 -0.000528133
0.00874913 -0.0219213 -0.000659401
0 0 0
0 0 0
0 0 0
0 0 0
0 0 0
0 0 0
0 0 0
0 0 0
0 0 0
0 0 0
0 0 0
0 0 0
0 0 0
0 0 0
0 0 0
0 0 0
0 0 0
0 0 0
0 0 0
0 0 0
0 0 0
0 0 0
0 0 0
0 0 0
0 0 0
0 0 0
0 0 0
0 0 0
0 0 0
0 0 0
0 0 0
0 0 0
0 0 0
0 0 0
0 0 0
0 0 0
0 0 0
0 0 0
0 0 0
0 0 0
0 0 0
0 0 0
0 0 0
0 0 0
0 0 0
0 0 0
0 0 0
0 0 0
0 0 0
0 0 0
0 0 0